/*--------------------------------*- C++ -*----------------------------------*\
  =========                 |
  \\      /  F ield         | OpenFOAM: The Open Source CFD Toolbox
   \\    /   O peration     | Website:  https://openfoam.org
    \\  /    A nd           | Version:  dev
     \\/     M anipulation  |
\*---------------------------------------------------------------------------*/
FoamFile
{
    format      ascii;
    class       volScalarField;
    location    "0";
    object      yPlus;
}
// * * * * * * * * * * * * * * * * * * * * * * * * * * * * * * * * * * * * * //

dimensions      [];

internalField   uniform 0;

boundaryField
{
    inlet
    {
        type            cyclic;
    }
    outlet
    {
        type            cyclic;
    }
    bottom
    {
        type            calculated;
        value           nonuniform List<scalar> 
50
(
37.344627
37.344627
37.344627
37.344627
37.344627
37.344627
37.344627
37.344627
37.344627
37.344627
37.344627
37.344627
37.344627
37.344627
37.344627
37.344627
37.344627
37.344627
37.344627
37.344627
37.344627
37.344627
37.344627
37.344627
37.344627
37.344627
37.344627
37.344627
37.344627
37.344627
37.344627
37.344627
37.344627
37.344627
37.344627
37.344627
37.344627
37.344627
37.344627
37.344627
37.344627
37.344627
37.344627
37.344627
37.344627
37.344627
37.344627
37.344627
37.344627
37.344627
)
;
    }
    top
    {
        type            calculated;
        value           uniform 0;
    }
    frontAndBack
    {
        type            empty;
    }
}


// ************************************************************************* //
